LAMMPS data file. CGCMM style. atom_style full generated by VMD/TopoTools v1.7 on Tue Oct 22 10:07:
 8665 atoms
 0 bonds                                                                                           
 0 angles                                                                                          
 0 dihedrals                                                                                       
 0 impropers                                                                                       
 2 atom types                                                                                      
 0 bond types                                                                                      
 0 angle types                                                                                     
 0 dihedral types                                                                                  
 0 improper types                                                                                  
 -0.365252 51.541349  xlo xhi                                                                      
 -0.218765 49.729237  ylo yhi                                                                      
 0.021093 90.132116  zlo zhi                                                                       
                                                                                                   
# Pair Coeffs                                                                                      
#                                                                                                  
# 1  Au                                                                                            
# 2  mW                                                                                            
                                                                                                   
 Masses                                                                                            
                                                                                                   
 1 196.966553 # Au                                                                                 
 2 18.014999 # mW                                                                                  
                                                                                                   
 Atoms # full                                                                                      
                                                                                                   
1 1 1 0.000000 0.720995 0.416603 36.815483                                                   
2 1 1 0.000000 2.160995 2.916603 36.815483                                                   
3 1 1 0.000000 0.720995 2.076603 39.165482                                                   
4 1 1 0.000000 2.160995 4.576603 39.165482                                                   
5 1 1 0.000000 2.160995 1.246603 41.525482                                                   
6 1 1 0.000000 0.720995 3.746603 41.525482                                                   
7 1 1 0.000000 0.720995 0.416603 43.875481                                                   
8 1 1 0.000000 2.160995 2.916603 43.875481                                                   
9 1 1 0.000000 0.720995 2.076603 46.235481                                                   
10 1 1 0.000000 2.160995 4.576603 46.235481                                                  
11 1 1 0.000000 2.160995 1.246603 48.585484                                                  
12 1 1 0.000000 0.720995 3.746603 48.585484                                                  
13 1 1 0.000000 0.720995 0.416603 50.945480                                                  
14 1 1 0.000000 2.160995 2.916603 50.945480                                                  
15 1 1 0.000000 0.720995 2.076603 53.295479                                                  
16 1 1 0.000000 2.160995 4.576603 53.295479                                                  
17 1 1 0.000000 0.720995 5.406603 36.815483                                                  
18 1 1 0.000000 2.160995 7.906603 36.815483                                                  
19 1 1 0.000000 0.720995 7.076603 39.165482                                                  
20 1 1 0.000000 2.160995 9.576603 39.165482                                                  
21 1 1 0.000000 2.160995 6.246603 41.525482                                                  
22 1 1 0.000000 0.720995 8.736603 41.525482                                                  
23 1 1 0.000000 0.720995 5.406603 43.875481                                                  
24 1 1 0.000000 2.160995 7.906603 43.875481                                                  
25 1 1 0.000000 0.720995 7.076603 46.235481                                                  
26 1 1 0.000000 2.160995 9.576603 46.235481                                                  
27 1 1 0.000000 2.160995 6.246603 48.585484                                                  
28 1 1 0.000000 0.720995 8.736603 48.585484                                                  
29 1 1 0.000000 0.720995 5.406603 50.945480                                                  
30 1 1 0.000000 2.160995 7.906603 50.945480                                                  
31 1 1 0.000000 0.720995 7.076603 53.295479                                                  
32 1 1 0.000000 2.160995 9.576603 53.295479                                                  
33 1 1 0.000000 0.720995 10.406603 36.815483                                                 
34 1 1 0.000000 2.160995 12.906603 36.815483                                                 
35 1 1 0.000000 0.720995 12.066603 39.165482                                                 
36 1 1 0.000000 2.160995 14.566603 39.165482                                                 
37 1 1 0.000000 2.160995 11.236603 41.525482                                                 
38 1 1 0.000000 0.720995 13.736603 41.525482                                                 
39 1 1 0.000000 0.720995 10.406603 43.875481                                                 
40 1 1 0.000000 2.160995 12.906603 43.875481                                                 
41 1 1 0.000000 0.720995 12.066603 46.235481                                                 
42 1 1 0.000000 2.160995 14.566603 46.235481                                                 
43 1 1 0.000000 2.160995 11.236603 48.585484                                                 
44 1 1 0.000000 0.720995 13.736603 48.585484                                                 
45 1 1 0.000000 0.720995 10.406603 50.945480                                                 
46 1 1 0.000000 2.160995 12.906603 50.945480                                                 
47 1 1 0.000000 0.720995 12.066603 53.295479                                                 
48 1 1 0.000000 2.160995 14.566603 53.295479                                                 
49 1 1 0.000000 0.720995 15.396604 36.815483                                                 
50 1 1 0.000000 2.160995 17.896603 36.815483                                                 
51 1 1 0.000000 0.720995 17.066603 39.165482                                                 
52 1 1 0.000000 2.160995 19.566603 39.165482                                                 
53 1 1 0.000000 2.160995 16.236603 41.525482                                                 
54 1 1 0.000000 0.720995 18.726603 41.525482                                                 
55 1 1 0.000000 0.720995 15.396604 43.875481                                                 
56 1 1 0.000000 2.160995 17.896603 43.875481                                                 
57 1 1 0.000000 0.720995 17.066603 46.235481                                                 
58 1 1 0.000000 2.160995 19.566603 46.235481                                                 
59 1 1 0.000000 2.160995 16.236603 48.585484                                                 
60 1 1 0.000000 0.720995 18.726603 48.585484                                                 
61 1 1 0.000000 0.720995 15.396604 50.945480                                                 
62 1 1 0.000000 2.160995 17.896603 50.945480                                                 
63 1 1 0.000000 0.720995 17.066603 53.295479                                                 
64 1 1 0.000000 2.160995 19.566603 53.295479                                                 
65 1 1 0.000000 0.720995 20.396603 36.815483                                                 
66 1 1 0.000000 2.160995 22.896603 36.815483                                                 
67 1 1 0.000000 0.720995 22.056602 39.165482                                                 
68 1 1 0.000000 2.160995 24.556602 39.165482                                                 
69 1 1 0.000000 2.160995 21.226604 41.525482                                                 
70 1 1 0.000000 0.720995 23.726604 41.525482                                                 
71 1 1 0.000000 0.720995 20.396603 43.875481                                                 
72 1 1 0.000000 2.160995 22.896603 43.875481                                                 
73 1 1 0.000000 0.720995 22.056602 46.235481                                                 
74 1 1 0.000000 2.160995 24.556602 46.235481                                                 
75 1 1 0.000000 2.160995 21.226604 48.585484                                                 
76 1 1 0.000000 0.720995 23.726604 48.585484                                                 
77 1 1 0.000000 0.720995 20.396603 50.945480                                                 
78 1 1 0.000000 2.160995 22.896603 50.945480                                                 
79 1 1 0.000000 0.720995 22.056602 53.295479                                                 
80 1 1 0.000000 2.160995 24.556602 53.295479                                                 
81 1 1 0.000000 0.720995 25.386602 36.815483                                                 
82 1 1 0.000000 2.160995 27.886602 36.815483                                                 
83 1 1 0.000000 0.720995 27.056602 39.165482                                                 
84 1 1 0.000000 2.160995 29.556602 39.165482                                                 
85 1 1 0.000000 2.160995 26.226604 41.525482                                                 
86 1 1 0.000000 0.720995 28.716602 41.525482                                                 
87 1 1 0.000000 0.720995 25.386602 43.875481                                                 
88 1 1 0.000000 2.160995 27.886602 43.875481                                                 
89 1 1 0.000000 0.720995 27.056602 46.235481                                                 
90 1 1 0.000000 2.160995 29.556602 46.235481                                                 
91 1 1 0.000000 2.160995 26.226604 48.585484                                                 
92 1 1 0.000000 0.720995 28.716602 48.585484                                                 
93 1 1 0.000000 0.720995 25.386602 50.945480                                                 
94 1 1 0.000000 2.160995 27.886602 50.945480                                                 
95 1 1 0.000000 0.720995 27.056602 53.295479                                                 
96 1 1 0.000000 2.160995 29.556602 53.295479                                                 
97 1 1 0.000000 0.720995 30.386602 36.815483                                                 
98 1 1 0.000000 2.160995 32.886604 36.815483                                                 
99 1 1 0.000000 0.720995 32.046604 39.165482                                                 
100 1 1 0.000000 2.160995 34.546604 39.165482                                                
101 1 1 0.000000 2.160995 31.216602 41.525482                                                
102 1 1 0.000000 0.720995 33.716602 41.525482                                                
103 1 1 0.000000 0.720995 30.386602 43.875481                                                
104 1 1 0.000000 2.160995 32.886604 43.875481                                                
105 1 1 0.000000 0.720995 32.046604 46.235481                                                
106 1 1 0.000000 2.160995 34.546604 46.235481                                                
107 1 1 0.000000 2.160995 31.216602 48.585484                                                
108 1 1 0.000000 0.720995 33.716602 48.585484                                                
109 1 1 0.000000 0.720995 30.386602 50.945480                                                
110 1 1 0.000000 2.160995 32.886604 50.945480                                                
111 1 1 0.000000 0.720995 32.046604 53.295479                                                
112 1 1 0.000000 2.160995 34.546604 53.295479                                                
113 1 1 0.000000 0.720995 35.376602 36.815483                                                
114 1 1 0.000000 2.160995 37.876602 36.815483                                                
115 1 1 0.000000 0.720995 37.046604 39.165482                                                
116 1 1 0.000000 2.160995 39.546604 39.165482                                                
117 1 1 0.000000 2.160995 36.216602 41.525482                                                
118 1 1 0.000000 0.720995 38.706604 41.525482                                                
119 1 1 0.000000 0.720995 35.376602 43.875481                                                
120 1 1 0.000000 2.160995 37.876602 43.875481                                                
121 1 1 0.000000 0.720995 37.046604 46.235481                                                
122 1 1 0.000000 2.160995 39.546604 46.235481                                                
123 1 1 0.000000 2.160995 36.216602 48.585484                                                
124 1 1 0.000000 0.720995 38.706604 48.585484                                                
125 1 1 0.000000 0.720995 35.376602 50.945480                                                
126 1 1 0.000000 2.160995 37.876602 50.945480                                                
127 1 1 0.000000 0.720995 37.046604 53.295479                                                
128 1 1 0.000000 2.160995 39.546604 53.295479                                                
129 1 1 0.000000 0.720995 40.376602 36.815483                                                
130 1 1 0.000000 2.160995 42.876602 36.815483                                                
131 1 1 0.000000 0.720995 42.036606 39.165482                                                
132 1 1 0.000000 2.160995 44.536606 39.165482                                                
133 1 1 0.000000 2.160995 41.206604 41.525482                                                
134 1 1 0.000000 0.720995 43.706604 41.525482                                                
135 1 1 0.000000 0.720995 40.376602 43.875481                                                
136 1 1 0.000000 2.160995 42.876602 43.875481                                                
137 1 1 0.000000 0.720995 42.036606 46.235481                                                
138 1 1 0.000000 2.160995 44.536606 46.235481                                                
139 1 1 0.000000 2.160995 41.206604 48.585484                                                
140 1 1 0.000000 0.720995 43.706604 48.585484                                                
141 1 1 0.000000 0.720995 40.376602 50.945480                                                
142 1 1 0.000000 2.160995 42.876602 50.945480                                                
143 1 1 0.000000 0.720995 42.036606 53.295479                                                
144 1 1 0.000000 2.160995 44.536606 53.295479                                                
145 1 1 0.000000 0.720995 45.366600 36.815483                                                
146 1 1 0.000000 2.160995 47.866600 36.815483                                                
147 1 1 0.000000 0.720995 47.036606 39.165482                                                
148 1 1 0.000000 2.160995 49.536606 39.165482                                                
149 1 1 0.000000 2.160995 46.206604 41.525482                                                
150 1 1 0.000000 0.720995 48.696602 41.525482                                                
151 1 1 0.000000 0.720995 45.366600 43.875481                                                
152 1 1 0.000000 2.160995 47.866600 43.875481                                                
153 1 1 0.000000 0.720995 47.036606 46.235481                                                
154 1 1 0.000000 2.160995 49.536606 46.235481                                                
155 1 1 0.000000 2.160995 46.206604 48.585484                                                
156 1 1 0.000000 0.720995 48.696602 48.585484                                                
157 1 1 0.000000 0.720995 45.366600 50.945480                                                
158 1 1 0.000000 2.160995 47.866600 50.945480                                                
159 1 1 0.000000 0.720995 47.036606 53.295479                                                
160 1 1 0.000000 2.160995 49.536606 53.295479                                                
161 1 1 0.000000 3.600995 0.416603 36.815483                                                 
162 1 1 0.000000 5.050995 2.916603 36.815483                                                 
163 1 1 0.000000 3.600995 2.076603 39.165482                                                 
164 1 1 0.000000 5.050995 4.576603 39.165482                                                 
165 1 1 0.000000 5.050995 1.246603 41.525482                                                 
166 1 1 0.000000 3.600995 3.746603 41.525482                                                 
167 1 1 0.000000 3.600995 0.416603 43.875481                                                 
168 1 1 0.000000 5.050995 2.916603 43.875481                                                 
169 1 1 0.000000 3.600995 2.076603 46.235481                                                 
170 1 1 0.000000 5.050995 4.576603 46.235481                                                 
171 1 1 0.000000 5.050995 1.246603 48.585484                                                 
172 1 1 0.000000 3.600995 3.746603 48.585484                                                 
173 1 1 0.000000 3.600995 0.416603 50.945480                                                 
174 1 1 0.000000 5.050995 2.916603 50.945480                                                 
175 1 1 0.000000 3.600995 2.076603 53.295479                                                 
176 1 1 0.000000 5.050995 4.576603 53.295479                                                 
177 1 1 0.000000 3.600995 5.406603 36.815483                                                 
178 1 1 0.000000 5.050995 7.906603 36.815483                                                 
179 1 1 0.000000 3.600995 7.076603 39.165482                                                 
180 1 1 0.000000 5.050995 9.576603 39.165482                                                 
181 1 1 0.000000 5.050995 6.246603 41.525482                                                 
182 1 1 0.000000 3.600995 8.736603 41.525482                                                 
183 1 1 0.000000 3.600995 5.406603 43.875481                                                 
184 1 1 0.000000 5.050995 7.906603 43.875481                                                 
185 1 1 0.000000 3.600995 7.076603 46.235481                                                 
186 1 1 0.000000 5.050995 9.576603 46.235481                                                 
187 1 1 0.000000 5.050995 6.246603 48.585484                                                 
188 1 1 0.000000 3.600995 8.736603 48.585484                                                 
189 1 1 0.000000 3.600995 5.406603 50.945480                                                 
190 1 1 0.000000 5.050995 7.906603 50.945480                                                 
191 1 1 0.000000 3.600995 7.076603 53.295479                                                 
192 1 1 0.000000 5.050995 9.576603 53.295479                                                 
193 1 1 0.000000 3.600995 10.406603 36.815483                                                
194 1 1 0.000000 5.050995 12.906603 36.815483                                                
195 1 1 0.000000 3.600995 12.066603 39.165482                                                
196 1 1 0.000000 5.050995 14.566603 39.165482                                                
197 1 1 0.000000 5.050995 11.236603 41.525482                                                
198 1 1 0.000000 3.600995 13.736603 41.525482                                                
199 1 1 0.000000 3.600995 10.406603 43.875481                                                
200 1 1 0.000000 5.050995 12.906603 43.875481                                                
201 1 1 0.000000 3.600995 12.066603 46.235481                                                
202 1 1 0.000000 5.050995 14.566603 46.235481                                                
203 1 1 0.000000 5.050995 11.236603 48.585484                                                
204 1 1 0.000000 3.600995 13.736603 48.585484                                                
205 1 1 0.000000 3.600995 10.406603 50.945480                                                
206 1 1 0.000000 5.050995 12.906603 50.945480                                                
207 1 1 0.000000 3.600995 12.066603 53.295479                                                
208 1 1 0.000000 5.050995 14.566603 53.295479                                                
209 1 1 0.000000 3.600995 15.396604 36.815483                                                
210 1 1 0.000000 5.050995 17.896603 36.815483                                                
211 1 1 0.000000 3.600995 17.066603 39.165482                                                
212 1 1 0.000000 5.050995 19.566603 39.165482                                                
213 1 1 0.000000 5.050995 16.236603 41.525482                                                
214 1 1 0.000000 3.600995 18.726603 41.525482                                                
215 1 1 0.000000 3.600995 15.396604 43.875481                                                
216 1 1 0.000000 5.050995 17.896603 43.875481                                                
217 1 1 0.000000 3.600995 17.066603 46.235481                                                
218 1 1 0.000000 5.050995 19.566603 46.235481                                                
219 1 1 0.000000 5.050995 16.236603 48.585484                                                
220 1 1 0.000000 3.600995 18.726603 48.585484                                                
221 1 1 0.000000 3.600995 15.396604 50.945480                                                
222 1 1 0.000000 5.050995 17.896603 50.945480                                                
223 1 1 0.000000 3.600995 17.066603 53.295479                                                
224 1 1 0.000000 5.050995 19.566603 53.295479                                                
225 1 1 0.000000 3.600995 20.396603 36.815483                                                
226 1 1 0.000000 5.050995 22.896603 36.815483                                                
227 1 1 0.000000 3.600995 22.056602 39.165482                                                
228 1 1 0.000000 5.050995 24.556602 39.165482                                                
229 1 1 0.000000 5.050995 21.226604 41.525482                                                
230 1 1 0.000000 3.600995 23.726604 41.525482                                                
231 1 1 0.000000 3.600995 20.396603 43.875481                                                
232 1 1 0.000000 5.050995 22.896603 43.875481                                                
233 1 1 0.000000 3.600995 22.056602 46.235481                                                
234 1 1 0.000000 5.050995 24.556602 46.235481                                                
235 1 1 0.000000 5.050995 21.226604 48.585484                                                
236 1 1 0.000000 3.600995 23.726604 48.585484                                                
237 1 1 0.000000 3.600995 20.396603 50.945480                                                
238 1 1 0.000000 5.050995 22.896603 50.945480                                                
239 1 1 0.000000 3.600995 22.056602 53.295479                                                
240 1 1 0.000000 5.050995 24.556602 53.295479                                                
241 1 1 0.000000 3.600995 25.386602 36.815483                                                
242 1 1 0.000000 5.050995 27.886602 36.815483                                                
243 1 1 0.000000 3.600995 27.056602 39.165482                                                
244 1 1 0.000000 5.050995 29.556602 39.165482                                                
245 1 1 0.000000 5.050995 26.226604 41.525482                                                
246 1 1 0.000000 3.600995 28.716602 41.525482                                                
247 1 1 0.000000 3.600995 25.386602 43.875481                                                
248 1 1 0.000000 5.050995 27.886602 43.875481                                                
249 1 1 0.000000 3.600995 27.056602 46.235481                                                
250 1 1 0.000000 5.050995 29.556602 46.235481                                                
251 1 1 0.000000 5.050995 26.226604 48.585484                                                
252 1 1 0.000000 3.600995 28.716602 48.585484                                                
253 1 1 0.000000 3.600995 25.386602 50.945480                                                
254 1 1 0.000000 5.050995 27.886602 50.945480                                                
255 1 1 0.000000 3.600995 27.056602 53.295479                                                
256 1 1 0.000000 5.050995 29.556602 53.295479                                                
257 1 1 0.000000 3.600995 30.386602 36.815483                                                
258 1 1 0.000000 5.050995 32.886604 36.815483                                                
259 1 1 0.000000 3.600995 32.046604 39.165482                                                
260 1 1 0.000000 5.050995 34.546604 39.165482                                                
261 1 1 0.000000 5.050995 31.216602 41.525482                                                
262 1 1 0.000000 3.600995 33.716602 41.525482                                                
263 1 1 0.000000 3.600995 30.386602 43.875481                                                
264 1 1 0.000000 5.050995 32.886604 43.875481                                                
265 1 1 0.000000 3.600995 32.046604 46.235481                                                
266 1 1 0.000000 5.050995 34.546604 46.235481                                                
267 1 1 0.000000 5.050995 31.216602 48.585484                                                
268 1 1 0.000000 3.600995 33.716602 48.585484                                                
269 1 1 0.000000 3.600995 30.386602 50.945480                                                
270 1 1 0.000000 5.050995 32.886604 50.945480                                                
271 1 1 0.000000 3.600995 32.046604 53.295479                                                
272 1 1 0.000000 5.050995 34.546604 53.295479                                                
273 1 1 0.000000 3.600995 35.376602 36.815483                                                
274 1 1 0.000000 5.050995 37.876602 36.815483                                                
275 1 1 0.000000 3.600995 37.046604 39.165482                                                
276 1 1 0.000000 5.050995 39.546604 39.165482                                                
277 1 1 0.000000 5.050995 36.216602 41.525482                                                
278 1 1 0.000000 3.600995 38.706604 41.525482                                                
279 1 1 0.000000 3.600995 35.376602 43.875481                                                
280 1 1 0.000000 5.050995 37.876602 43.875481                                                
281 1 1 0.000000 3.600995 37.046604 46.235481                                                
282 1 1 0.000000 5.050995 39.546604 46.235481                                                
283 1 1 0.000000 5.050995 36.216602 48.585484                                                
284 1 1 0.000000 3.600995 38.706604 48.585484                                                
285 1 1 0.000000 3.600995 35.376602 50.945480                                                
286 1 1 0.000000 5.050995 37.876602 50.945480                                                
287 1 1 0.000000 3.600995 37.046604 53.295479                                                
288 1 1 0.000000 5.050995 39.546604 53.295479                                                
289 1 1 0.000000 3.600995 40.376602 36.815483                                                
290 1 1 0.000000 5.050995 42.876602 36.815483                                                
291 1 1 0.000000 3.600995 42.036606 39.165482                                                